# vtk DataFile Version 3.0
Scalar Field Data
ASCII
DATASET STRUCTURED_POINTS
DIMENSIONS 11 11 1
ORIGIN 0 0 0
SPACING 0.111111 0.111111 1
POINT_DATA 121
SCALARS scalars double
LOOKUP_TABLE default
       0        0        0        0        0        0        0        0        0        0
       0 0.471507 0.886263  1.19421  1.35817  1.35833  1.19462 0.886774 0.471888        0
       0 0.886235  1.66579  2.24459  2.55275  2.55304  2.24534  1.66671 0.886922        0
       0  1.19411  2.24448  3.02434  3.43954   3.4399   3.0253  2.24568  1.19501        0
       0  1.35795  2.55243  3.43928  3.91144  3.91185  3.44036  2.55377  1.35895        0
       0  1.35795  2.55243  3.43928  3.91144  3.91185  3.44036  2.55377  1.35895        0
       0   1.1944    2.245    3.025  3.44025  3.44058  3.02587  2.24607  1.19521        0
       0  0.88666  1.66655  2.24556  2.55379  2.55402  2.24615  1.66729  0.88721        0
       0 0.471842  0.88686  1.19497  1.35899   1.3591  1.19527 0.887226 0.472116        0
       0        0        0        0        0        0        0        0        0        0
