# vtk DataFile Version 3.0
Scalar Field Data
ASCII
DATASET STRUCTURED_POINTS
DIMENSIONS 11 11 1
ORIGIN 0 0 0
SPACING 0.111111 0.111111 1
POINT_DATA 121
SCALARS scalars double
LOOKUP_TABLE default
       0        0        0        0        0        0        0        0        0        0
       0 0.471879 0.886934  1.19508  1.35912  1.35924  1.19539 0.887318 0.472166        0
       0 0.886934  1.66705  2.24622  2.55453  2.55474  2.24677  1.66773 0.887441        0
       0  1.19508  2.24622  3.02659  3.44199  3.44225  3.02728  2.24708  1.19572        0
       0  1.35912  2.55453  3.44199  3.91438  3.91466  3.44272  2.55544   1.3598        0
       0  1.35924  2.55474  3.44225  3.91466  3.91492  3.44294   2.5556  1.35988        0
       0  1.19539  2.24677  3.02728  3.44272  3.44294  3.02785  2.24748  1.19592        0
       0 0.887318  1.66773  2.24708  2.55544   2.5556  2.24748  1.66823 0.887689        0
       0 0.472166 0.887441  1.19572   1.3598  1.35988  1.19592 0.887689 0.472351        0
       0        0        0        0        0        0        0        0        0        0
