# vtk DataFile Version 3.0
Scalar Field Data
ASCII
DATASET STRUCTURED_POINTS
DIMENSIONS 11 11 1
ORIGIN 0 0 0
SPACING 0.111111 0.111111 1
POINT_DATA 121
SCALARS scalars double
LOOKUP_TABLE default
        0         0         0         0         0         0         0         0         0         0
        0 0.0285068 0.0535752 0.0721817  0.082082  0.082082 0.0721817 0.0535752 0.0285068         0
        0 0.0535752  0.100688  0.135657  0.154264  0.154264  0.135657  0.100688 0.0535752         0
        0 0.0721817  0.135657   0.18277  0.207839  0.207839   0.18277  0.135657 0.0721817         0
        0  0.082082  0.154264  0.207839  0.236346  0.236346  0.207839  0.154264  0.082082         0
        0  0.082082  0.154264  0.207839  0.236346  0.236346  0.207839  0.154264  0.082082         0
        0 0.0721817  0.135657   0.18277  0.207839  0.207839   0.18277  0.135657 0.0721817         0
        0 0.0535752  0.100688  0.135657  0.154264  0.154264  0.135657  0.100688 0.0535752         0
        0 0.0285068 0.0535752 0.0721817  0.082082  0.082082 0.0721817 0.0535752 0.0285068         0
        0         0         0         0         0         0         0         0         0         0
